9
Properties=species:S:1:pos:R:3:forces:R:3 energy=9.959914314895153 pbc="F F F"
C        0.09077432       0.04963448      -0.17348263       0.08936426       0.01132328       0.04903014
C        1.39889974      -0.05374540      -0.03793486      -0.02905549       0.04087790      -0.06172474
H       -0.48812174       0.88889884       0.22323160      -0.00379778      -0.01479020       0.03551483
H        1.82277801      -0.18670165       1.06103732      -0.00011078       0.03134270       0.02840162
C       -1.00993653      -1.21694864       0.08657426      -0.29922248       0.09498635      -0.02172729
H        2.17384530      -0.28068267      -0.76129097      -0.01627136      -0.04074024       0.01301491
H       -0.30068403      -1.72313721       0.93874897       0.05248892      -0.00299847       0.03138056
H       -1.50519493      -1.93057283      -0.44918120      -0.00010446       0.03599874       0.06548440
H       -1.60449606      -0.70639057       0.47390312       0.20670917      -0.15600006      -0.13937442
9
Properties=species:S:1:pos:R:3:forces:R:3 energy=9.71621186081461 pbc="F F F"
C        0.09652801       0.05107010      -0.16927631       0.10242987      -0.00175492       0.05364613
C        1.40361550      -0.05703275      -0.03921066      -0.01815239       0.03761102      -0.05414239
H       -0.50023454       0.90464606       0.21778650      -0.01164246      -0.00402677       0.03666099
H        1.77260705      -0.15804728       1.04990230      -0.01392507       0.03307320       0.01986213
C       -1.01564227      -1.22127389       0.08909692      -0.28563035       0.03858757      -0.06453424
H        2.16536791      -0.27778230      -0.78713243      -0.01561242      -0.03854445       0.00742593
H       -0.29752176      -1.71943403       0.92585355       0.05398474      -0.00046962       0.02823357
H       -1.45990807      -1.90767637      -0.46432340       0.01484323       0.06024922       0.08743922
H       -1.63890527      -0.70674438       0.47943138       0.17370485      -0.12472524      -0.11459134
9
Properties=species:S:1:pos:R:3:forces:R:3 energy=9.198411834216927 pbc="F F F"
C        0.10122294       0.05252386      -0.16562450       0.11099698      -0.01176594       0.05685105
C        1.40851889      -0.06070886      -0.03992683      -0.00625867       0.03295596      -0.04165771
H       -0.51091445       0.92088888       0.20782939      -0.01838529       0.00527312       0.03627441
H        1.72414990      -0.13346336       1.03632276      -0.02776131       0.03353159       0.00856310
C       -1.01839561      -1.22599799       0.09228663      -0.22691242      -0.03245817      -0.11636755
H        2.15881199      -0.27013812      -0.81388784      -0.01401031      -0.03539679       0.00074448
H       -0.30100361      -1.71567305       0.90948332       0.05295377       0.00286528       0.02361660
H       -1.41644802      -1.89219501      -0.49022709       0.02237079       0.07224758       0.10136815
H       -1.69469300      -0.69174779       0.49906283       0.10700647      -0.06725263      -0.06939253
9
Properties=species:S:1:pos:R:3:forces:R:3 energy=8.751546449285543 pbc="F F F"
C        0.10477056       0.05409924      -0.16256032       0.11523892      -0.01836402       0.05868298
C        1.41348697      -0.06472562      -0.04021240       0.00594758       0.02717295      -0.02508419
H       -0.51933162       0.93648271       0.19340785      -0.02368538       0.01282376       0.03425518
H        1.67910944      -0.11300629       1.02168934      -0.04070491       0.03263022      -0.00512634
C       -1.01880349      -1.23038660       0.09667916      -0.15591257      -0.08087337      -0.14450428
H        2.15398038      -0.25813752      -0.84073487      -0.01182742      -0.03129497      -0.00648155
H       -0.31100268      -1.71226472       0.89020650       0.04900971       0.00710603       0.01681697
H       -1.37574123      -1.88560543      -0.52860653       0.02027371       0.06538763       0.09867621
H       -1.76365043      -0.66847416       0.52723469       0.04166036      -0.01458824      -0.02723497
9
Properties=species:S:1:pos:R:3:forces:R:3 energy=8.52062246218618 pbc="F F F"
C        0.10712702       0.05586443      -0.16010272       0.11554641      -0.02139098       0.05909972
C        1.41839358      -0.06902325      -0.04023870       0.01761990       0.02047433      -0.00621281
H       -0.52483373       0.95049828       0.17477040      -0.02735182       0.01844214       0.03068707
H        1.63907869      -0.09656516       1.00768683      -0.05176931       0.03041173      -0.01989621
C       -1.01759979      -1.23393927       0.10256534      -0.09166041      -0.09800994      -0.13681376
H        2.15060441      -0.24228534      -0.86678420      -0.00939629      -0.02626701      -0.01368369
H       -0.32703356      -1.70973095       0.86885996       0.04159769       0.01264914       0.00691754
H       -1.33752960      -1.88706336      -0.57913044       0.01191424       0.04242328       0.07737616
H       -1.83773515      -0.64340509       0.55875846      -0.00650040       0.02126731       0.00252597
9
Properties=species:S:1:pos:R:3:forces:R:3 energy=8.529392691973085 pbc="F F F"
C        0.10828915       0.05785073      -0.15825599       0.11245841      -0.02083167       0.05813749
C        1.42311805      -0.07353251      -0.04020078       0.02802875       0.01304701       0.01223332
H       -0.52696955       0.96224409       0.15235616      -0.02930127       0.02195866       0.02579045
H        1.60541939      -0.08386691       0.99613303      -0.06019486       0.02712308      -0.03350952
C       -1.01544866      -1.23647886       0.10986569      -0.03987313      -0.09641331      -0.10048098
H        2.14838488      -0.22320037      -0.89114942      -0.00699468      -0.02043148      -0.02035941
H       -0.34818403      -1.70875396       0.84666204       0.03023077       0.02013477      -0.00679271
H       -1.30078431      -1.89374249      -0.63917733       0.00330216       0.01351795       0.04420322
H       -1.91101985      -0.62095348       0.58997135      -0.03765617       0.04189498       0.02077814
9
Properties=species:S:1:pos:R:3:forces:R:3 energy=8.754357385484541 pbc="F F F"
C        0.10828886       0.06005236      -0.15701020       0.10654629      -0.01677870       0.05596486
C        1.42755282      -0.07817663      -0.04028930       0.03683490       0.00504265       0.02708144
H       -0.52549915       0.97128738       0.12676780      -0.02951086       0.02320121       0.01985427
H        1.57916850      -0.07450680       0.98870337      -0.06569641       0.02317920      -0.04326068
C       -1.01288538      -1.23802189       0.11820465       0.00008388      -0.09122605      -0.04943544
H        2.14702621      -0.20160081      -0.91300892      -0.00483058      -0.01398605      -0.02612891
H       -0.37305512      -1.71025504       0.82530013       0.01506236       0.03005772      -0.02419767
H       -1.26444542      -1.90208533      -0.70466448      -0.00164967      -0.01180865       0.00894677
H       -1.97967006      -0.60365804       0.61862699      -0.05683992       0.05231868       0.03117535
9
Properties=species:S:1:pos:R:3:forces:R:3 energy=9.130127581571411 pbc="F F F"
C        0.10718727       0.06242742      -0.15634288       0.09829222      -0.00943677       0.05286739
C        1.43160684      -0.08287287      -0.04065775       0.04415189      -0.00342077       0.03565344
H       -0.52039674       0.97747520       0.09873590      -0.02799204       0.02201860       0.01318511
H        1.56100312      -0.06799945       0.98659797      -0.06850726       0.01905951      -0.04689795
C       -1.01032296      -1.23862197       0.12705459       0.03038711      -0.09050482       0.00421893
H        2.14626206      -0.17827995      -0.93165265      -0.00303822      -0.00716819      -0.03075555
H       -0.39977999      -1.71545543       0.80691632      -0.00231046       0.04203161      -0.04358246
H       -1.22790351      -1.90897482      -0.77125274      -0.00237178      -0.02928039      -0.02156740
H       -2.04132476      -0.59280166       0.64344577      -0.06861146       0.05670122       0.03687850
9
Properties=species:S:1:pos:R:3:forces:R:3 energy=9.559283796334224 pbc="F F F"
C        0.10506969       0.06490002      -0.15622202       0.08806573       0.00086474       0.04918436
C        1.43520449      -0.08753376      -0.04139473       0.05035147      -0.01219514       0.03672287
H       -0.51184924       0.98095310       0.06908126      -0.02479844       0.01831546       0.00608874
H        1.55126919      -0.06383783       0.99026448      -0.06918095       0.01516988      -0.04355145
C       -1.00807464      -1.23828655       0.13586093       0.05164467      -0.09456108       0.05168640
H        2.14587183      -0.15407686      -0.94651117      -0.00168748      -0.00022692      -0.03413163
H       -0.42622050      -1.72582881       0.79389638      -0.01833416       0.05395186      -0.06110516
H       -1.19106968      -1.91226067      -0.83518662      -0.00007104      -0.03898298      -0.04485764
H       -2.09453518      -0.58892371       0.66372576      -0.07598979       0.05766419       0.03996352
9
Properties=species:S:1:pos:R:3:forces:R:3 energy=9.937383287083517 pbc="F F F"
C        0.10204183       0.06736368      -0.15660955       0.07617766       0.01365686       0.04522829
C        1.43828168      -0.09206858      -0.04251129       0.05579132      -0.02103774       0.03086116
H       -0.50024970       0.98217686       0.03867725      -0.02007001       0.01211674      -0.00112661
H        1.55004962      -0.06154321       0.99929103      -0.06829209       0.01173992      -0.03406422
C       -1.00636015      -1.23697371       0.14413301       0.06243314      -0.09879530       0.08643605
H        2.14568929      -0.12984585      -0.95716898      -0.00080195       0.00659259      -0.03623808
H       -0.45040455      -1.74284226       0.78839687      -0.02831577       0.06188192      -0.07150227
H       -1.15422712      -1.91074874      -0.89359970       0.00383838      -0.04283936      -0.06125194
H       -2.13839326      -0.59214272       0.67908730      -0.08076066       0.05668438       0.04165762
9
Properties=species:S:1:pos:R:3:forces:R:3 energy=10.187450484406938 pbc="F F F"
C        0.09822656       0.06968618      -0.15746458       0.06301841       0.02827530       0.04121010
C        1.44078220      -0.09638596      -0.04394684       0.06062375      -0.02957392       0.01999438
H       -0.48618007       0.98190936       0.00841189      -0.01410362       0.00367256      -0.00813998
H        1.55723503      -0.06069348       1.01251000      -0.06623210       0.00880543      -0.02054267
C       -1.00529098      -1.23463969       0.15151166       0.06164088      -0.09749978       0.10474030
H        2.14560545      -0.10642621      -0.96336683      -0.00037709       0.01305048      -0.03710110
H       -0.47110368      -1.76747174       0.79169743      -0.02899790       0.06164573      -0.07064440
H       -1.11785696      -1.90396440      -0.94447426       0.00835698      -0.04292809      -0.07216429
H       -2.17231180      -0.60233810       0.68932187      -0.08392930       0.05455229       0.04264767
9
Properties=species:S:1:pos:R:3:forces:R:3 energy=10.288499967231122 pbc="F F F"
C        0.09375991       0.07171642      -0.15874558       0.04918026       0.04378712       0.03718547
C        1.44265608      -0.10039765      -0.04558907       0.06478929      -0.03736325       0.00651311
H       -0.47037465       0.98118986      -0.02085164      -0.00743063      -0.00639484      -0.01462746
H        1.57257187      -0.06092746       1.02825723      -0.06316274       0.00626771      -0.00547881
C       -1.00485896      -1.23129786       0.15780767       0.05117020      -0.08760902       0.10737102
H        2.14556802      -0.08461275      -0.96499850      -0.00040410       0.01892317      -0.03673826
H       -0.48823392      -1.79968821       0.80369246      -0.02102763       0.05157306      -0.05838533
H       -1.08251533      -1.89189673      -0.98646730       0.01292061      -0.04085693      -0.07913186
H       -2.19590085      -0.61924743       0.69430762      -0.08603526       0.05167297       0.04329212
9
Properties=species:S:1:pos:R:3:forces:R:3 energy=10.269266959432755 pbc="F F F"
C        0.08878491       0.07329405      -0.16041093       0.03553753       0.05888810       0.03307281
C        1.44386027      -0.10402313      -0.04729862       0.06807245      -0.04397714      -0.00750326
H       -0.45365471       0.98125740      -0.04831492      -0.00084757      -0.01697535      -0.02030770
H        1.59568239      -0.06193284       1.04467876      -0.05908345       0.00397377       0.00902040
C       -1.00495586      -1.22705047       0.16299385       0.03580795      -0.07026878       0.09931228
H        2.14558033      -0.06512823      -0.96210866      -0.00087532       0.02402292      -0.03514588
H       -0.50277621      -1.83825197       0.82287320      -0.00855331       0.03379732      -0.03876210
H       -1.04876388      -1.87480065      -1.01872127       0.01725618      -0.03768294      -0.08342400
H       -2.20890121      -0.64251636       0.69396525      -0.08731446       0.04822209       0.04373745
9
Properties=species:S:1:pos:R:3:forces:R:3 energy=10.168982116561546 pbc="F F F"
C        0.08344258       0.07426299      -0.16241815       0.02314680       0.07191457       0.02870308
C        1.44436084      -0.10719405      -0.04893061       0.07022591      -0.04910310      -0.02064838
H       -0.43683046       0.98341416      -0.07327885       0.00466800      -0.02648058      -0.02500965
H        1.62606454      -0.06342728       1.05999012      -0.05392671       0.00177382       0.02157641
C       -1.00542288      -1.22207676       0.16715349       0.02047972      -0.04920869       0.08687053
H        2.14570036      -0.04860031      -0.95489328      -0.00179413       0.02822606      -0.03227979
H       -0.51626581      -1.88097530       0.84682454       0.00369801       0.01268978      -0.01724044
H       -1.01713622      -1.85306678      -1.04070792       0.02125083      -0.03402123      -0.08594709
H       -2.21115544      -0.67172016       0.68823994      -0.08774842       0.04420937       0.04397533
9
Properties=species:S:1:pos:R:3:forces:R:3 energy=10.005659376313258 pbc="F F F"
C        0.07786100       0.07448859      -0.16472204       0.01300593       0.08104584       0.02392765
C        1.44413553      -0.10985742      -0.05034916       0.07102846      -0.05254606      -0.03219345
H       -0.42058072       0.98882999      -0.09516474       0.00820202      -0.03312112      -0.02872371
H        1.66308366      -0.06514003       1.07264598      -0.04763378      -0.00045672       0.03154037
C       -1.00610159      -1.21659441       0.17041521       0.00794350      -0.02802533       0.07484887
H        2.14604120      -0.03554628      -0.94370510      -0.00316134       0.03148562      -0.02809784
H       -0.53021054      -1.92526040       0.87289772       0.01277505      -0.00771489       0.00207826
H       -0.98812398      -1.82714579      -1.05211675       0.02486449      -0.03015898      -0.08722833
H       -2.20261014      -0.70636497       0.67710243      -0.08702434       0.03949164       0.04384819
9
Properties=species:S:1:pos:R:3:forces:R:3 energy=9.776044256892348 pbc="F F F"
C        0.07214498       0.07387647      -0.16727327       0.00571411       0.08477832       0.01867475
C        1.44317604      -0.11197765      -0.05143496       0.07032903      -0.05422600      -0.04188397
H       -0.40534043       0.99832217      -0.11351550       0.00923486      -0.03542069      -0.03158868
H        1.70596525      -0.06679657       1.08142005      -0.04020290      -0.00281040       0.03879455
C       -1.00686241      -1.21082237       0.17290326      -0.00162230      -0.00870377       0.06569288
H        2.14677112      -0.02636730      -0.92905881      -0.00495304       0.03383221      -0.02261071
H       -0.54572754      -1.96859600       0.89871513       0.01783471      -0.02506972       0.01733151
H       -0.96217191      -1.79751302      -1.05279004       0.02807123      -0.02614282      -0.08742893
H       -2.18335442      -0.74587018       0.66056834      -0.08440571       0.03376287       0.04301861
9
Properties=species:S:1:pos:R:3:forces:R:3 energy=9.476014233282516 pbc="F F F"
C        0.06636989       0.07238805      -0.17001752       0.00120529       0.08246239       0.01291882
C        1.44148959      -0.11353738      -0.05208782       0.06806587      -0.05416939      -0.04967246
H       -0.39123671       1.01217370      -0.12797852       0.00788238      -0.03275728      -0.03380202
H        1.75379476      -0.06810723       1.08541953      -0.03171105      -0.00535107       0.04351704
C       -1.00760646      -1.20496037       0.17471227      -0.01000835       0.00835163       0.06010746
H        2.14811063      -0.02135218      -0.91162974      -0.00707757       0.03537096      -0.01594540
H       -0.56343954      -2.00884618       0.92239948       0.01931795      -0.03861928       0.02832330
H       -0.93967467      -1.76466275      -1.04270312       0.03081406      -0.02182998      -0.08634300
H       -2.15371057      -0.78953071       0.63873980      -0.07848857       0.02654202       0.04089626
9
Properties=species:S:1:pos:R:3:forces:R:3 energy=9.121904300647676 pbc="F F F"
C        0.06058235       0.07004726      -0.17289531      -0.00121847       0.07453362       0.00657265
C        1.43909960      -0.11453720      -0.05222726       0.06418356      -0.05243878      -0.05548719
H       -0.37810311       1.03005680      -0.13828140       0.00488419      -0.02560387      -0.03549316
H        1.80552707      -0.06875931       1.08406319      -0.02229929      -0.00812557       0.04600326
C       -1.00824705      -1.19918470       0.17590000      -0.02045402       0.02362813       0.05794775
H        2.15032121      -0.02069030      -0.89223820      -0.00932431       0.03625962      -0.00840401
H       -0.58352906      -2.04434334       0.94259797       0.01809657      -0.04853981       0.03565239
H       -0.92096984      -1.72912578      -1.02198964       0.03296099      -0.01689764      -0.08333128
H       -2.11440682      -0.83645786       0.61187799      -0.06682920       0.01718429       0.03653958
9
Properties=species:S:1:pos:R:3:forces:R:3 energy=8.764855538298342 pbc="F F F"
C        0.05480741       0.06693607      -0.17584104      -0.00262690       0.06230838      -0.00069199
C        1.43604617      -0.11499498      -0.05179315       0.05854398      -0.04907273      -0.05905564
H       -0.36557062       1.05109106      -0.14421599       0.00135013      -0.01529695      -0.03661609
H        1.86000385      -0.06841134       1.07704507      -0.01213123      -0.01118060       0.04657080
C       -1.00867623      -1.19365325       0.17648875      -0.03755061       0.03776236       0.05871465
H        2.15367936      -0.02449103      -0.87181235      -0.01131989       0.03668592      -0.00048512
H       -0.60584580      -2.07386651       0.95840859       0.01500261      -0.05538239       0.04013726
H       -0.90632164      -1.69150916      -0.99102026       0.03425364      -0.01081729      -0.07716716
H       -2.06687815      -0.88549996       0.58051911      -0.04552174       0.00499330       0.02859329
9
Properties=species:S:1:pos:R:3:forces:R:3 energy=8.49668188456677 pbc="F F F"
C        0.04905962       0.06318082      -0.17877961      -0.00417493       0.04747471      -0.00971456
C        1.43238761      -0.11494553      -0.05074862       0.05080787      -0.04393437      -0.05979137
H       -0.35320430       1.07400798      -0.14564410      -0.00151189      -0.00350743      -0.03686006
H        1.91597365      -0.06668733       1.06429529      -0.00131246      -0.01458529       0.04556113
C       -1.00871727      -1.18851213       0.17647061      -0.06692096       0.05070780       0.06136910
H        2.15843070      -0.03280684      -0.85132680      -0.01251405       0.03680747       0.00713061
H       -0.63000897      -2.09657356       0.96927936       0.01064204      -0.05977548       0.04256887
H       -0.89588917      -1.65256121      -0.95055362       0.03422864      -0.00279800      -0.06576037
H       -2.01374695      -0.93515660       0.54564116      -0.00924427      -0.01038939       0.01549666
9
Properties=species:S:1:pos:R:3:forces:R:3 energy=8.436814113687081 pbc="F F F"
C        0.04335498       0.05893486      -0.18161777      -0.00710212       0.03158784      -0.02241979
C        1.42820388      -0.11444196      -0.04908606       0.04028752      -0.03640700      -0.05668755
H       -0.34065191       1.09735657      -0.14253571      -0.00241782       0.00826204      -0.03543172
H        1.97210499      -0.06316826       1.04593813       0.01026206      -0.01841576       0.04344544
C       -1.00806658      -1.18389515       0.17581812      -0.11291577       0.06054228       0.06304325
H        2.16472219      -0.04565268      -0.83171883      -0.01220522       0.03659433       0.01362611
H       -0.65548189      -2.11192382       0.97491102       0.00533209      -0.06234056       0.04368424
H       -0.88966934      -1.61326890      -0.90199360       0.03210211       0.00825822      -0.04578047
H       -1.95947802      -0.98353457       0.50885596       0.04665714      -0.02808139      -0.00347952
9
Properties=species:S:1:pos:R:3:forces:R:3 energy=8.672647034864967 pbc="F F F"
C        0.03772375       0.05436240      -0.18422419      -0.01330538       0.01582861      -0.04276725
C        1.42360372      -0.11356207      -0.04683756       0.02611460      -0.02501829      -0.04828209
H       -0.32780194       1.11968832      -0.13506660       0.00029183       0.01895126      -0.03043562
H        2.02697334      -0.05738269       1.02223397       0.02307329      -0.02244174       0.04106025
C       -1.00624876      -1.17990396       0.17451400      -0.17175834       0.06212450       0.05644270
H        2.17251582      -0.06300233      -0.81378789      -0.00966244       0.03538140       0.01806937
H       -0.68161106      -2.11960158       0.97516629      -0.00094856      -0.06368367       0.04420635
H       -0.88740045      -1.57499296      -0.84779920       0.02672306       0.02362736      -0.01253022
H       -1.91095136      -1.02845647       0.47249901       0.11947193      -0.04476943      -0.02576351
9
Properties=species:S:1:pos:R:3:forces:R:3 energy=9.149221811300041 pbc="F F F"
C        0.03223005       0.04962632      -0.18638855      -0.02531914       0.00118941      -0.07397637
C        1.41873363      -0.11242357      -0.04408999       0.00950151      -0.00924542      -0.03422526
H       -0.31498789       1.13968766      -0.12385166       0.00781674       0.02799869      -0.01906591
H        2.07900197      -0.04883513       0.99347637       0.03705133      -0.02479472       0.03939861
C       -1.00265556      -1.17655491       0.17262646      -0.22222464       0.04854794       0.02869829
H        2.18149864      -0.08470650      -0.79808081      -0.00473245       0.03136904       0.01967112
H       -0.70762348      -2.11944155       0.96998091      -0.00832651      -0.06410204       0.04452077
H       -0.88842047      -1.53962493      -0.79206266       0.01725863       0.04415979       0.03823033
H       -1.87712857      -1.06786841       0.43931287       0.18897452      -0.05512269      -0.04325157
9
Properties=species:S:1:pos:R:3:forces:R:3 energy=9.624329894016523 pbc="F F F"
C        0.02699806       0.04487795      -0.18778826      -0.04091312      -0.01130926      -0.10524469
C        1.41376532      -0.11118952      -0.04098865      -0.00322318       0.00458329      -0.01958248
H       -0.30313588       1.15624110      -0.11029020       0.01638801       0.03528201      -0.00385176
H        2.12647055      -0.03723598       0.95986983       0.04874360      -0.02267718       0.03756737
C       -0.99676537      -1.17370767       0.17044229      -0.23112258       0.01967105      -0.02867373
H        2.19106391      -0.11027138      -0.78479473       0.00108432       0.02445542       0.01910416
H       -0.73261113      -2.11139223       0.95931620      -0.01608015      -0.06269149       0.04345235
H       -0.89156457      -1.50969182      -0.74103127       0.00540207       0.06904564       0.10381382
H       -1.86656360      -1.10049620       0.41144986       0.21972102      -0.05635948      -0.04658502
9
Properties=species:S:1:pos:R:3:forces:R:3 energy=9.840034552788337 pbc="F F F"
C        0.02218897       0.04024648      -0.18810012      -0.05377895      -0.02115542      -0.12370628
C        1.40883034      -0.11000284      -0.03768491      -0.00991387       0.01142269      -0.00856225
H       -0.29330080       1.16845225      -0.09625469       0.02141823       0.04079446       0.00838643
H        2.16794007      -0.02284587       0.92163973       0.05544388      -0.01779163       0.03366604
C       -0.98848620      -1.17106376       0.16855450      -0.18403451      -0.01372898      -0.10090106
H        2.20049572      -0.13884609      -0.77385987       0.00653300       0.01780529       0.01796273
H       -0.75561973      -2.09562724       0.94330363      -0.02332347      -0.05839684       0.03950292
H       -0.89537353      -1.48825641      -0.70277665      -0.00488187       0.09308841       0.16845800
H       -1.88304054      -1.12618761       0.38932026       0.19253755      -0.05203796      -0.03480651
9
Properties=species:S:1:pos:R:3:forces:R:3 energy=9.713011801792195 pbc="F F F"
C        0.01793575       0.03583368      -0.18713329      -0.06262251      -0.02803701      -0.13164248
C        1.40399783      -0.10893423      -0.03429266      -0.01379729       0.01396552       0.00018296
H       -0.28610175       1.17564266      -0.08325134       0.02361487       0.04451554       0.01693665
H        2.20258590      -0.00626607       0.87926623       0.05835955      -0.01255615       0.02768831
C       -0.97830477      -1.16827795       0.16770966      -0.10452959      -0.03767594      -0.14955655
H        2.20912349      -0.16961215      -0.76513575       0.01178552       0.01219575       0.01677725
H       -0.77575782      -2.07267512       0.92242929      -0.03007126      -0.05072636       0.03221997
H       -0.89858166      -1.47827775      -0.68525479      -0.01003930       0.10581615       0.20437303
H       -1.92321381      -1.14547451       0.37147442       0.12730001      -0.04749750      -0.01697913
9
Properties=species:S:1:pos:R:3:forces:R:3 energy=9.316794970080126 pbc="F F F"
C        0.01432983       0.03171068      -0.18480576      -0.06783676      -0.03176767      -0.13254821
C        1.39930793      -0.10800997      -0.03090230      -0.01654603       0.01464073       0.00780770
H       -0.28180907       1.17735438      -0.07233244       0.02419445       0.04646090       0.02324437
H        2.23004920       0.01185906       0.83348502       0.05854491      -0.00730990       0.01982986
C       -0.96704288      -1.16510270       0.16841070      -0.02769014      -0.04475390      -0.14281889
H        2.21630078      -0.20187920      -0.75847648       0.01689071       0.00677148       0.01588569
H       -0.79219493      -2.04347991       0.89758952      -0.03629463      -0.03860097       0.02089349
H       -0.90055421      -1.48132230      -0.69288591      -0.00923116       0.09902977       0.19015159
H       -1.97905438      -1.15891571       0.35571827       0.05796865      -0.04447043      -0.00244559
9
Properties=species:S:1:pos:R:3:forces:R:3 energy=8.870030267277675 pbc="F F F"
C        0.01142509       0.02791604      -0.18110816      -0.06847043      -0.03251509      -0.12545829
C        1.39478906      -0.10723704      -0.02759265      -0.01845677       0.01348909       0.01392465
H       -0.28049409       1.17334798      -0.06427431       0.02285166       0.04662989       0.02774302
H        2.25030715       0.03088385       0.78526327       0.05601136      -0.00131928       0.00914302
C       -0.95549477      -1.16146485       0.17058798       0.02990606      -0.04021888      -0.08629758
H        2.22139926      -0.23497964      -0.75377231       0.02155831       0.00061676       0.01631753
H       -0.80416511      -2.00953394       0.87017830      -0.04151499      -0.02029899       0.00435628
H       -0.90139065      -1.49655481      -0.72391971      -0.00534255       0.07568205       0.13470818
H       -2.04202938      -1.16688376       0.34026311       0.00345735      -0.04206556       0.00556319
9
Properties=species:S:1:pos:R:3:forces:R:3 energy=8.649876546854662 pbc="F F F"
C        0.00922810       0.02445749      -0.17611377      -0.05850263      -0.03138383      -0.09894632
C        1.39046096      -0.10660355      -0.02442692      -0.01989520       0.00579855       0.01566951
H       -0.28199155       1.16360266      -0.05963063       0.01528011       0.04486787       0.02758264
H        2.26367157       0.05007100       0.73591625       0.04938265       0.00737336      -0.00940589
C       -0.94425579      -1.15741129       0.17365726       0.06711751      -0.03339669      -0.01089374
H        2.22384447      -0.26815598      -0.75107641       0.02519375      -0.00688874       0.02185758
H       -0.81102589      -1.97308969       0.84223094      -0.04390985       0.00585289      -0.01900482
H       -0.90156956      -1.52110180      -0.77153257      -0.00051110       0.04731650       0.06576759
H       -2.10542988      -1.16967464       0.32412327      -0.03415525      -0.03953990       0.00737345
9
Properties=species:S:1:pos:R:3:forces:R:3 energy=8.816891872216566 pbc="F F F"
C        0.00763581       0.02132334      -0.17009663      -0.03855427      -0.03037832      -0.05799498