6
Properties=species:S:1:pos:R:3:forces:R:3 energy=8.324483878580486 pbc="F F F"
C       -0.08657408       0.01110425      -0.00612001      -0.10465819      -0.02534079      -0.01096722
C        1.41927218      -0.02970869       0.06730234       0.08133299      -0.02686210       0.11476423
H       -0.67995920       0.70616283      -0.68386440      -0.03222329       0.02258068       0.00410336
H        2.16026576       0.79938016       0.35503767       0.01663684       0.03401813      -0.03146551
H        2.05675007      -0.60712528      -0.85446178       0.02177655      -0.02278627      -0.04493607
H       -0.71741667      -0.67690713       0.45480938       0.01713509       0.01839036      -0.03149880
6
Properties=species:S:1:pos:R:3:forces:R:3 energy=8.152930238220456 pbc="F F F"
C       -0.07907062       0.01180997      -0.00553515      -0.08840393      -0.01764918      -0.01260761
C        1.41419399      -0.03163911       0.06710212       0.08519745      -0.03893151       0.11878499
H       -0.68336836       0.68563324      -0.73762011      -0.03846095       0.02401683      -0.01375385
H        2.16975863       0.78694496       0.38936802       0.01963286       0.03369036      -0.02404443
H        2.02555569      -0.56753838      -0.87971195       0.01559062      -0.01152581      -0.05236463
H       -0.72118346      -0.66894727       0.49490545       0.00644395       0.01039931      -0.01601447
6
Properties=species:S:1:pos:R:3:forces:R:3 energy=8.057976650142836 pbc="F F F"
C       -0.07065338       0.01269811      -0.00481997      -0.06859709      -0.00963976      -0.01343979
C        1.40823516      -0.03316712       0.06567409       0.08215042      -0.04699434       0.11490413
H       -0.68204398       0.66214780      -0.78968308      -0.04169152       0.02307652      -0.02949681
H        2.17683521       0.77036336       0.42665762       0.02257868       0.03130718      -0.01568890
H        1.99244252      -0.52653296      -0.89851741       0.01011780      -0.00051445      -0.05622498
H       -0.72574334      -0.66226730       0.53697250      -0.00455828       0.00276486      -0.00005366
6
Properties=species:S:1:pos:R:3:forces:R:3 energy=8.043418014273481 pbc="F F F"
C       -0.06152709       0.01368590      -0.00396588      -0.04634087      -0.00308921      -0.01297949
C        1.40142719      -0.03420938       0.06305836       0.07252290      -0.05150327       0.10378695
H       -0.67558847       0.63582225      -0.83811576      -0.04217575       0.01904205      -0.04358330
H        2.18113294       0.74992866       0.46587811       0.02568059       0.02636055      -0.00591937
H        1.95808410      -0.48546423      -0.91040305       0.00470194       0.01136361      -0.05709780
H       -0.72974221      -0.65592760       0.57904614      -0.01438880      -0.00217374       0.01579301
6
Properties=species:S:1:pos:R:3:forces:R:3 energy=8.117385637050354 pbc="F F F"
C       -0.05192181       0.01470563      -0.00297762      -0.02210175       0.00070263      -0.01009058
C        1.39386960      -0.03471928       0.05936984       0.05521337      -0.05178980       0.08427244
H       -0.66394223       0.60715312      -0.88118449      -0.03968135       0.01148059      -0.05618264
H        2.18227007       0.72624967       0.50582712       0.02937326       0.01823944       0.00593217
H        1.92314700      -0.44579405      -0.91526143      -0.00080504       0.02460272      -0.05478878
H       -0.73197020      -0.64932038       0.61917608      -0.02199850      -0.00323558       0.03085740
6
Properties=species:S:1:pos:R:3:forces:R:3 energy=8.28127872795476 pbc="F F F"
C       -0.04208807       0.01571808      -0.00188507       0.00346575       0.00185788      -0.00560786
C        1.38574130      -0.03469386       0.05481026       0.03189750      -0.04871838       0.05791436
H       -0.64741225       0.57707103      -0.91733859      -0.03473940       0.00186628      -0.06616997
H        2.17979212       0.70032588       0.54504603       0.03316063       0.00816261       0.01835918
H        1.88830898      -0.40915183      -0.91337676      -0.00689791       0.03823226      -0.04820126
H       -0.73149075      -0.64231494       0.65550828      -0.02688656      -0.00140065       0.04370555
6
Properties=species:S:1:pos:R:3:forces:R:3 energy=8.514062613303826 pbc="F F F"
C       -0.03229016       0.01671134      -0.00073454       0.02915485       0.00159000      -0.00214130
C        1.37728329      -0.03416487       0.04965204       0.00797616      -0.04540247       0.02935377
H       -0.62660676       0.54675925      -0.94534891      -0.02885106      -0.00743878      -0.07250674
H        2.17323296       0.67339748       0.58200541       0.03569813      -0.00148020       0.02868471
H        1.85431991      -0.37721500      -0.90555977      -0.01467210       0.05117618      -0.03663223
H       -0.72770227      -0.63513712       0.68646147      -0.02930599       0.00155527       0.05324180
6
Properties=species:S:1:pos:R:3:forces:R:3 energy=8.780330381542807 pbc="F F F"
C       -0.02279360       0.01768816       0.00043811       0.05374864       0.00073196      -0.00072683
C        1.36874284      -0.03316657       0.04419041      -0.01304970      -0.04367155       0.00091083
H       -0.60225046       0.51736299      -0.96443554      -0.02279306      -0.01558625      -0.07540624
H        2.16228030       0.64665127       0.61543445       0.03637040      -0.00969297       0.03613774
H        1.82213659      -0.35157661      -0.89323431      -0.02450300       0.06329734      -0.02050169
H       -0.72030698      -0.62815072       0.71086198      -0.02977330       0.00492148       0.05958619
6
Properties=species:S:1:pos:R:3:forces:R:3 energy=9.04372544373535 pbc="F F F"
C       -0.01385261       0.01865741       0.00161828       0.07618222      -0.00035647      -0.00103850
C        1.36033728      -0.03171687       0.03871937      -0.03065418      -0.04350031      -0.02679324
H       -0.57508893       0.48988499      -0.97424164      -0.01646755      -0.02286793      -0.07536819
H        2.14685139       0.62109800       0.64441588       0.03528482      -0.01661626       0.04127432
H        1.79296895      -0.33372847      -0.87838562      -0.03568731       0.07464315      -0.00135614
H       -0.70924738      -0.62177001       0.72792900      -0.02865799       0.00869782       0.06328174
6
Properties=species:S:1:pos:R:3:forces:R:3 energy=9.266486831302492 pbc="F F F"
C       -0.00569907       0.01963035       0.00280918       0.09535678      -0.00132517      -0.00270200
C        1.35224857      -0.02981754       0.03352528      -0.04562099      -0.04410079      -0.05201033
H       -0.54590068       0.46522143      -0.97477189      -0.00950741      -0.02979163      -0.07252861
H        2.12707984       0.59758976       0.66831753       0.03263370      -0.02258543       0.04468755
H        1.76819348      -0.32506695      -0.86337004      -0.04667852       0.08484977       0.01779632
H       -0.69466074      -0.61645979       0.73720769      -0.02618356       0.01295324       0.06475708
6
Properties=species:S:1:pos:R:3:forces:R:3 energy=9.407045070045172 pbc="F F F"
C        0.00146883       0.02061699       0.00402801       0.10997765      -0.00171656      -0.00567390
C        1.34463141      -0.02746236       0.02886878      -0.05921284      -0.04422425      -0.07109909
H       -0.51554231       0.44422445      -0.96637576      -0.00149851      -0.03684556      -0.06660456
H        2.10329194       0.57686119       0.68671930       0.02848212      -0.02787849       0.04667414
H        1.74916292      -0.32684822      -0.85054471      -0.05529373       0.09295249       0.03245905
H       -0.67685158      -0.61274376       0.73851648      -0.02245469       0.01771238       0.06424436
6
Properties=species:S:1:pos:R:3:forces:R:3 energy=9.428872139294963 pbc="F F F"
C        0.00749995       0.02162137       0.00530549       0.11852065      -0.00098442      -0.01019732
C        1.33762631      -0.02465006       0.02494719      -0.07247719      -0.04224138      -0.07976078
H       -0.48499951       0.42776218      -0.94978236       0.00795454      -0.04448309      -0.05704193
H        2.07599864       0.55956374       0.69937671       0.02276331      -0.03271921       0.04724087
H        1.73693757      -0.34006950      -0.84171425      -0.05928521       0.09745440       0.03793873
H       -0.65627884      -0.61120767       0.73191847      -0.01747610       0.02297371       0.06182043
6
Properties=species:S:1:pos:R:3:forces:R:3 energy=9.320152583028987 pbc="F F F"
C        0.01230599       0.02263592       0.00668837       0.11942114       0.00141845      -0.01657664
C        1.33137036      -0.02140113       0.02185005      -0.08539047      -0.03648909      -0.07548602
H       -0.45543571       0.41677463      -0.92616858       0.01912259      -0.05308692      -0.04330132
H        2.04590376       0.54629316       0.70622001       0.01533831      -0.03730480       0.04615338
H        1.73200868      -0.36528488      -0.83755305      -0.05731330       0.09674574       0.03175227
H       -0.63355525      -0.61249904       0.71771198      -0.01117828       0.02871662       0.05745833
6
Properties=species:S:1:pos:R:3:forces:R:3 energy=9.10662810052339 pbc="F F F"
C        0.01587764       0.02363582       0.00824260       0.11141583       0.00590483      -0.02472021
C        1.32599704      -0.01777504       0.01953316      -0.09632761      -0.02599369      -0.05942318
H       -0.42822540       0.41232068      -0.89722555       0.03194756      -0.06281439      -0.02536471
H        2.01392115       0.53761384       0.70738303       0.00612064      -0.04176228       0.04303007
H        1.73413355      -0.40240711      -0.83729972      -0.04969089       0.08982144       0.01539380
H       -0.60945590      -0.61732468       0.69643387      -0.00346553       0.03484408       0.05108423
6
Properties=species:S:1:pos:R:3:forces:R:3 energy=8.83912575169056 pbc="F F F"
C        0.01829766       0.02457467       0.01005234       0.09412809       0.01255489      -0.03335176
C        1.32161940      -0.01388027       0.01783049      -0.10266557      -0.01107271      -0.03595395
H       -0.40494700       0.41559754      -0.86516078       0.04573742      -0.07323029      -0.00451342
H        1.98118524       0.53407435       0.70325018      -0.00474594      -0.04603160       0.03746536
H        1.74237407      -0.45058402      -0.83894097      -0.03814956       0.07677308      -0.00629025
H       -0.58493004      -0.62643871       0.66886864       0.00569555       0.04100663       0.04264401
6
Properties=species:S:1:pos:R:3:forces:R:3 energy=8.562323095266592 pbc="F F F"
C        0.01974473       0.02538376       0.01220682       0.06865410       0.02094885      -0.03911867
C        1.31830295      -0.00987105       0.01649945      -0.10241936       0.00657912      -0.01059179
H       -0.38729768       0.42788713      -0.83254053       0.05893405      -0.08268393       0.01601557
H        1.94903343       0.53620015       0.69450632      -0.01664153      -0.04956972       0.02916187
H        1.75530981      -0.50820969      -0.83980805      -0.02472642       0.05849893      -0.02752551
H       -0.56110515      -0.64059958       0.63605504       0.01619917       0.04622675       0.03205853
6
Properties=species:S:1:pos:R:3:forces:R:3 energy=8.296645814109281 pbc="F F F"
C        0.02048217       0.02597631       0.01476565       0.03751772       0.03043124      -0.03621276
C        1.31604515      -0.00592983       0.01527789      -0.09609897       0.02400369       0.01167647
H       -0.37690160       0.45035295      -0.80189138       0.06936435      -0.08758169       0.03150627
H        1.91892976       0.54442669       0.68217340      -0.02816912      -0.05073118       0.01784188
H        1.77128872      -0.57303504      -0.83728746      -0.01050254       0.03566474      -0.04354661
H       -0.53927395      -0.66044975       0.59929587       0.02788857       0.04821319       0.01873475
6
Properties=species:S:1:pos:R:3:forces:R:3 energy=8.06319661036617 pbc="F F F"
C        0.02083180       0.02625431       0.01769879       0.00506755       0.04040877      -0.01815473
C        1.31478067      -0.00223672       0.01393565      -0.08862754       0.03719850       0.02707566
H       -0.37504245       0.48359778      -0.77511982       0.07519121      -0.08228997       0.03865771
H        1.89229297       0.55889690       0.66764461      -0.03716069      -0.04611938       0.00263043
H        1.78856022      -0.64224979      -0.82940743       0.00483961       0.00779953      -0.05079703
H       -0.52087511      -0.68623371       0.56023095       0.04068986       0.04300255       0.00058796
6
Properties=species:S:1:pos:R:3:forces:R:3 energy=7.824608536330872 pbc="F F F"
C        0.01793545      -0.10107293       0.00790677       0.04842718      -0.01092591       0.00732506
C        1.35413341       0.09433523       0.00639460       0.03249456       0.01700336       0.06936216
H       -0.83567405       0.48475613      -0.56066832      -0.04321932       0.03418150      -0.00380629
H        1.70655832       1.02682603       0.51266636      -0.03539115       0.03193307      -0.01123767
H        1.94253246      -0.64058733      -0.81940340      -0.00419351      -0.05823996      -0.03956118
H       -0.46256182      -0.79076388       0.69711888       0.00188225      -0.01395207      -0.02208208
6
Properties=species:S:1:pos:R:3:forces:R:3 energy=7.6000634423952445 pbc="F F F"
C        0.01991862      -0.10101097       0.00973978       0.04690021      -0.01196132       0.01579807
C        1.35317288       0.09288907       0.00421938       0.04577928       0.01534280       0.06930204
H       -0.83166794       0.44824478      -0.60311935      -0.04485574       0.02184003      -0.02005206
H        1.70625980       0.98566499       0.54381486      -0.03923952       0.01483655      -0.00305595
H        1.92649848      -0.59274903      -0.83432178      -0.01123852      -0.04218667      -0.04878767
H       -0.46241226      -0.74444804       0.72741422       0.00265428       0.00212861      -0.01320444
6
Properties=species:S:1:pos:R:3:forces:R:3 energy=7.524731440712023 pbc="F F F"
C        0.02141701      -0.10082538       0.01140950       0.05123708      -0.01051420       0.02153363
C        1.35173916       0.09128432       0.00132783       0.04347215       0.01148759       0.06300894
H       -0.82214125       0.40904550      -0.64310250      -0.04254700       0.00745624      -0.03240733
H        1.71079064       0.94267795       0.57533946      -0.03961252      -0.00274914       0.00568568
H        1.91184765      -0.53971865      -0.84323568      -0.01649329      -0.02396162      -0.05333176
H       -0.46258936      -0.69839418       0.75933467       0.00394359       0.01828114      -0.00448917
6
Properties=species:S:1:pos:R:3:forces:R:3 energy=7.6279842294805205 pbc="F F F"
C        0.02238580      -0.10053110       0.01285664       0.06188492      -0.00753606       0.02327507
C        1.34985610       0.08956083      -0.00221500       0.02447834       0.00529444       0.04949597
H       -0.80737815       0.36892855      -0.67909716      -0.03574156      -0.01089552      -0.04234574
H        1.72019675       0.90002927       0.60616431      -0.03492261      -0.02187354       0.01758074
H        1.89922672      -0.48373922      -0.84558583      -0.02111556      -0.00165464      -0.05418545
H       -0.46325182      -0.65459025       0.79180763       0.00541647       0.03666532       0.00617941
6
Properties=species:S:1:pos:R:3:forces:R:3 energy=7.910281409015528 pbc="F F F"
C        0.02271491      -0.10015893       0.01406320       0.07681052      -0.00283483       0.02094149
C        1.34772001       0.08778261      -0.00626945      -0.00127802      -0.00362843       0.03144171
H       -0.78821619       0.33015255      -0.70988016      -0.02671423      -0.02755726      -0.04734322
H        1.73390091       0.86007265       0.63482542      -0.02769519      -0.03768801       0.02754015
H        1.88920457      -0.42755615      -0.84126717      -0.02738475       0.02094687      -0.04774753
H       -0.46458090      -0.61529886       0.82352006       0.00626168       0.05076165       0.01516739
6
Properties=species:S:1:pos:R:3:forces:R:3 energy=8.295275992925621 pbc="F F F"
C        0.02225008      -0.09975746       0.01505330       0.09150898       0.00387291       0.01546231
C        1.34559713       0.08604190      -0.01064889      -0.02051261      -0.01616059       0.01063822
H       -0.76576641       0.29476813      -0.73483645      -0.01814350      -0.03923075      -0.04781419
H        1.75101363       0.82475443       0.66009706      -0.02105249      -0.04704268       0.03323610
H        1.88255276      -0.37395109      -0.83107204      -0.03731896       0.04134277      -0.03324083
H       -0.46668063      -0.58225491       0.85336578       0.00551858       0.05721835       0.02171839
6
Properties=species:S:1:pos:R:3:forces:R:3 energy=8.710093711933657 pbc="F F F"
C        0.02083938      -0.09939602       0.01588357       0.10242865       0.01123283       0.00755192
C        1.34368628       0.08446823      -0.01513829      -0.03171315      -0.03051259      -0.01302416
H       -0.74108365       0.26421199      -0.75390807      -0.00979318      -0.04745848      -0.04546832
H        1.77071736       0.79522594       0.68127821      -0.01463071      -0.05156578       0.03696674
H        1.88049394      -0.32543425      -0.81678584      -0.04998173       0.05939388      -0.01346975
H       -0.46945956      -0.55625303       0.88053854       0.00369012       0.05891014       0.02744358
6
Properties=species:S:1:pos:R:3:forces:R:3 energy=9.097777597146798 pbc="F F F"
C        0.01836994      -0.09915069       0.01663579       0.10751636       0.01813514      -0.00203037
C        1.34210323       0.08320995      -0.01949307      -0.03670900      -0.04378067      -0.03700153
H       -0.71519559       0.23949675      -0.76738372      -0.00115312      -0.05356559      -0.04109589
H        1.79222175       0.77204384       0.69790973      -0.00806122      -0.05309800       0.04001445
H        1.88458656      -0.28422724      -0.80084186      -0.06308123       0.07412576       0.00728772
H       -0.47269264      -0.53750145       0.90433371       0.00148820       0.05818336       0.03282562
6
Properties=species:S:1:pos:R:3:forces:R:3 energy=9.400598148415993 pbc="F F F"
C        0.01478916      -0.09909281       0.01740899       0.10567432       0.02402284      -0.01250811
C        1.34089963       0.08240420      -0.02346539      -0.03848070      -0.05316324      -0.05623600
H       -0.68916562       0.22137403      -0.77580155       0.00795646      -0.05827195      -0.03505314
H        1.81471826       0.75539672       0.70961651      -0.00146839      -0.05290462       0.04267010
H        1.89644283      -0.25214316      -0.78579480      -0.07311920       0.08401397       0.02342136
H       -0.47610888      -0.52591072       0.92408890      -0.00056249       0.05630300       0.03770579
6
Properties=species:S:1:pos:R:3:forces:R:3 energy=9.56597208295946 pbc="F F F"
C        0.01011609      -0.09928324       0.01831148       0.09667644       0.02867839      -0.02310806
C        1.34009377       0.08214798      -0.02685642      -0.04058788      -0.05688235      -0.06565816
H       -0.66411488       0.21042306      -0.77990525       0.01737481      -0.06196603      -0.02772557
H        1.83739549       0.74526078       0.71607171       0.00485656      -0.05175308       0.04490395
H        1.91729816      -0.23039901      -0.77363031      -0.07619086       0.08800590       0.02977236
H       -0.47945589      -0.52124942       0.93920351      -0.00212907       0.05391717       0.04181549
6
Properties=species:S:1:pos:R:3:forces:R:3 energy=9.56932779111132 pbc="F F F"
C        0.00444372      -0.09977010       0.01945282       0.08111342       0.03199233      -0.03293613
C        1.33970744       0.08247971      -0.02956879      -0.04538646      -0.05478433      -0.06335070
H       -0.64120253       0.20709848      -0.78059666       0.02656981      -0.06477328      -0.01980554
H        1.85947501       0.74149428       0.71700042       0.01065694      -0.05000347       0.04667072
H        1.94753060      -0.21948609      -0.76513001      -0.06993038       0.08624503       0.02448124
H       -0.48254087      -0.52322391       0.94917171      -0.00302333       0.05132372       0.04494042
6
Properties=species:S:1:pos:R:3:forces:R:3 energy=9.426056577160114 pbc="F F F"
C       -0.00206705      -0.10058765       0.02093461       0.06026055       0.03376443      -0.04081741
C        1.33979025       0.08337771      -0.03162634      -0.05250025      -0.04813200      -0.05183542
H       -0.62156022       0.21174581      -0.77885053       0.03465938      -0.06652293      -0.01241646
H        1.88024293       0.74388190       0.71218518       0.01578461      -0.04770745       0.04796034
H        1.98636963      -0.21918767      -0.75964271      -0.05504958       0.07998718       0.01017974
H       -0.48525376      -0.53151501       0.95360893      -0.00315471       0.04861078       0.04692921
6
Properties=species:S:1:pos:R:3:forces:R:3 energy=9.1764514291751 pbc="F F F"
C       -0.00920071      -0.10175420       0.02283830       0.03576903       0.03355817      -0.04532198
C        1.34041572       0.08477323      -0.03314810      -0.05921724      -0.03873359      -0.03618179
H       -0.60618358       0.22458036      -0.77557626       0.04059200      -0.06669059      -0.00698395
H        1.89906818       0.75214107       0.70146728       0.02018727      -0.04471121       0.04873409
H        2.03198382      -0.22873358      -0.75540827      -0.03484252       0.07085318      -0.00790169
H       -0.48757838      -0.54578882       0.95227039      -0.00248853       0.04572405       0.04765531
6
Properties=species:S:1:pos:R:3:forces:R:3 energy=8.861339222624533 pbc="F F F"
C       -0.01670409      -0.10326761       0.02521046       0.00923134       0.03065875      -0.04507144
C        1.34165329       0.08656911      -0.03429587      -0.06241703      -0.02810555      -0.02100384
H       -0.59580275       0.24562278      -0.77144244       0.04349359      -0.06441085      -0.00480277
H        1.91540891       0.76590301       0.68475149       0.02386712      -0.04072185       0.04882388
H        2.08188622      -0.24699966      -0.75020134      -0.01317305       0.06007917      -0.02490954
H       -0.48959673      -0.56569006       0.94506673      -0.00100198       0.04250032       0.04696372
6
Properties=species:S:1:pos:R:3:forces:R:3 energy=8.513436751420201 pbc="F F F"
C       -0.02430289      -0.10509794       0.02804849      -0.01837783       0.02421147      -0.03928382
C        1.34353602       0.08865550      -0.03522653      -0.06015160      -0.01713475      -0.00883309
H       -0.59077485       0.27459249      -0.76671753       0.04308970      -0.05857174      -0.00638257
H        1.92881223       0.78467675       0.66202675       0.02683689      -0.03528596       0.04781014
H        2.13340988      -0.27265991      -0.74192870       0.00724134       0.04816552      -0.03792789
H       -0.49149177      -0.59082198       0.93208307       0.00136150       0.03861547       0.04461724
6
Properties=species:S:1:pos:R:3:forces:R:3 energy=8.166672532502558 pbc="F F F"
C       -0.03171173      -0.10717852       0.03129258      -0.04698401       0.01352139      -0.02816608
C        1.34604050       0.09091901      -0.03606589      -0.05223813      -0.00615662      -0.00020152
H       -0.59105015       0.31077085      -0.76120709       0.03998964      -0.04793914      -0.01088580
H        1.93891262       0.80779326       0.63341784       0.02908883      -0.02764320       0.04480661
H        2.18404231      -0.30424808      -0.72898812       0.02539172       0.03480204      -0.04572830
H       -0.49355436      -0.62070646       0.91360818       0.00475196       0.03341553       0.04017509
6
Properties=species:S:1:pos:R:3:forces:R:3 energy=7.871181096004545 pbc="F F F"
C       -0.03863493      -0.10939886       0.03482780      -0.07673298      -0.00134360      -0.01281731
C        1.34908494       0.09324615      -0.03690317      -0.04025959       0.00461312       0.00552608
H       -0.59624714       0.35284927      -0.75435690       0.03554635      -0.03135518      -0.01601153
H        1.94543294       0.83431193       0.59929441       0.03048472      -0.01664078       0.03813813
H        2.23154969      -0.34011947      -0.71041959       0.04161979       0.01904160      -0.04767172
H       -0.49620180      -0.65470351       0.89018880       0.00934172       0.02568484       0.03283635
6
Properties=species:S:1:pos:R:3:forces:R:3 energy=7.6951996188747955 pbc="F F F"
C       -0.04476498      -0.11160532       0.03849551      -0.10341534      -0.01776743       0.00490978
C        1.35254552       0.09552561      -0.03779757      -0.02759620       0.01410361       0.00912026
H       -0.60581895       0.39878668      -0.74553610       0.03045895      -0.00972475      -0.01935306
H        1.94820139       0.86287864       0.56047718       0.03035153      -0.00267537       0.02638784
H        2.27393476      -0.37833438      -0.68598391       0.05592599       0.00132870      -0.04342708
H       -0.49999897      -0.69186170       0.86272812       0.01427507       0.01473523       0.02236226
6
Properties=species:S:1:pos:R:3:forces:R:3 energy=7.676103484348778 pbc="F F F"
C       -0.04982608      -0.11362812       0.04211247      -0.11735181      -0.03072067       0.02184735
C        1.35629135       0.09765929      -0.03878624      -0.01770731       0.02084775       0.01068212
H       -0.61913946       0.44592096      -0.73433345       0.02372039       0.01104508      -0.02147949
H        1.94723435       0.89177463       0.51841229       0.02810496       0.00900591       0.01253886
H        2.30943681      -0.41671282      -0.65620350       0.06622091      -0.01365304      -0.03532314
H       -0.50555302      -0.73083340       0.83251524       0.01701287       0.00347497       0.01173430
6
Properties=species:S:1:pos:R:3:forces:R:3 energy=7.785125087001941 pbc="F F F"
C       -0.05367420      -0.11533339       0.04550361      -0.11814974      -0.03892995       0.03550528
C        1.36022020       0.09957748      -0.03988532      -0.01166127       0.02536507       0.01050399
H       -0.63537933       0.49169588      -0.72048723       0.01595627       0.02824768      -0.02253583
H        1.94280834       0.91956221       0.47480419       0.02445332       0.01632574      -0.00083580
H        2.33678880      -0.45341093      -0.62207574       0.07232976      -0.02435880      -0.02554906
H       -0.51320090      -0.77023279       0.80085816       0.01707166      -0.00664974       0.00291142
6
Properties=species:S:1:pos:R:3:forces:R:3 energy=7.992725922835664 pbc="F F F"
C       -0.05630106      -0.11663625       0.04852774      -0.10773714      -0.04240730       0.04504150
C        1.36426959       0.10123348      -0.04109298      -0.00949436       0.02786261       0.00883635
H       -0.65358300       0.53399424      -0.70386745       0.00771770       0.04363586      -0.02026640
H        1.93537276       0.94534053       0.43129896       0.01947187       0.02146084      -0.01541168
H        2.35523888      -0.48711110      -0.58480355       0.07523452      -0.03277806      -0.01283439
H       -0.52294986      -0.80881376       0.76884277       0.01480741      -0.01777394      -0.00536538
6
Properties=species:S:1:pos:R:3:forces:R:3 energy=8.28143954724744 pbc="F F F"
C       -0.05781431      -0.11750078       0.05108632      -0.08698832      -0.04135253       0.04971449
C        1.36841712       0.10260149      -0.04239197      -0.01097553       0.02845337       0.00609964
H       -0.67273652       0.57092218      -0.68475340      -0.00099707       0.05657431      -0.01489688
H        1.92554070       0.96847758       0.38969051       0.01357138       0.02430067      -0.03003595
H        2.36442957      -0.51677716      -0.54595179       0.07501683      -0.03872372       0.00179793
H       -0.53452123      -0.84520723       0.73748772       0.01037271      -0.02925209      -0.01267923
6
Properties=species:S:1:pos:R:3:forces:R:3 energy=8.607270046725995 pbc="F F F"
C       -0.05842842      -0.11793787       0.05313102      -0.06302862      -0.03787219       0.05010954
C        1.37267809       0.10367538      -0.04375401      -0.01434147       0.02847987       0.00341215
H       -0.69176733       0.60088729      -0.66380594      -0.00866399       0.06528456      -0.00918704
H        1.91403836       0.98862386       0.35177869       0.00827562       0.02416279      -0.04118474
H        2.36438764      -0.54167734      -0.50732131       0.07261956      -0.04160332       0.01433169
H       -0.54736921      -0.87800053       0.70769315       0.00513890      -0.03845171      -0.01748160
6
Properties=species:S:1:pos:R:3:forces:R:3 energy=8.912976909734331 pbc="F F F"
C       -0.05839104      -0.11798350       0.05465777      -0.04123352      -0.03346997       0.04793815
C        1.37708731       0.10445490      -0.04515132      -0.01743154       0.02844641       0.00115515
H       -0.70973182       0.62281759      -0.64172779      -0.01446330       0.07009477      -0.00415271
H        1.90151751       1.00579632       0.31893564       0.00411879       0.02211462      -0.04843363
H        2.35540815      -0.56145724      -0.47045468       0.06887608      -0.04215703       0.02370600
H       -0.56084965      -0.90606143       0.68005010       0.00013348      -0.04502880      -0.02021298
6
Properties=species:S:1:pos:R:3:forces:R:3 energy=9.158388783098754 pbc="F F F"